 Gaussian 16, Revision C.01,
 Gaussian 16:  ES64L-G16RevC.01  3-Jul-2019

 --------------------------
 # b3lyp/aug-cc-pvtz neda=3
 --------------------------

 ----------------------------
 C3 water trimer...b3lyp/avtz
 ----------------------------
 Symbolic Z-matrix:
 Charge =  0 Multiplicity = 1 in supermolecule
 Charge =  0 Multiplicity = 1 in fragment      1.
 Charge =  0 Multiplicity = 1 in fragment      2.
 Charge =  0 Multiplicity = 1 in fragment      3.

 SCF Done:  E(RB3LYP) =  -229.420164176     A.U. after    9 cycles

 Summary of Natural Population Analysis:

                                     Natural Population
             Natural    ---------------------------------------------
  Atom No    Charge        Core      Valence    Rydberg      Total
 --------------------------------------------------------------------
    O  1   -0.97511      2.00000     6.95226    0.02285     8.97511
    H  2    0.50283      0.00000     0.49200    0.00516     0.49717
    H  3    0.47226      0.00000     0.52445    0.00328     0.52774
    O  4   -0.97509      2.00000     6.95224    0.02285     8.97509
    H  5    0.50284      0.00000     0.49200    0.00516     0.49716
    H  6    0.47226      0.00000     0.52445    0.00328     0.52774
    O  7   -0.97509      2.00000     6.95224    0.02285     8.97509
    H  8    0.50284      0.00000     0.49200    0.00516     0.49716
    H  9    0.47226      0.00000     0.52445    0.00328     0.52774
 ====================================================================
 * Total *  0.00000      5.99999    23.90611    0.09390    30.00000

 SCF Done:  E(RB3LYP) =  -229.372741069     A.U. after    2 cycles
 SCF Done:  E(RB3LYP) =  -76.4660472855     A.U. after    9 cycles
 SCF Done:  E(RB3LYP) =  -76.4660474346     A.U. after    9 cycles
 SCF Done:  E(RB3LYP) =  -76.4660474967     A.U. after    9 cycles

                         Standard orientation:
 ---------------------------------------------------------------------
 Center     Atomic      Atomic             Coordinates (Angstroms)
 Number     Number       Type             X           Y           Z
 ---------------------------------------------------------------------
      1          8           0        0.816032    1.397183   -0.068678
      2          1           0        1.147273    0.481839   -0.014748
      3          1           0        1.324776    1.909775    0.564568
      4          8           0        0.802026   -1.405290   -0.068760
      5          1           0       -0.156317   -1.234524   -0.014913
      6          1           0        0.991569   -2.101977    0.564703
      7          8           0       -1.618059    0.008103   -0.068746
      8          1           0       -0.991042    0.752696   -0.014799
      9          1           0       -2.316252    0.192222    0.564657
 ---------------------------------------------------------------------

 The electronic state is 1-A.
 Alpha  occ. eigenvalues --  -19.14067  -1.01754  -0.54088  -0.39573  -0.32332
 Alpha  occ. eigenvalues --   -0.02603   0.01713   0.02814   0.03819   0.05315
 Alpha  occ. eigenvalues --    0.05785   0.06586   0.09813   0.09893   0.11010
 Alpha virt. eigenvalues --    0.11812   0.12225   0.14653   0.15068   0.15559
 Alpha virt. eigenvalues --    0.17691   0.19345   0.20028   0.21021   0.22449
 Alpha virt. eigenvalues --    0.23780   0.25469   0.26419   0.29465   0.29785

 Mulliken charges:
               1
     1  O    8.006800
     2  H    0.997223
     3  H    1.002890
     4  O    7.999168
     5  H    1.021998
     6  H    1.003316
     7  O   -0.388214
     8  H    0.216863
     9  H    0.139957
 Sum of Mulliken charges =  20.00000

 Dipole moment (field-independent basis, Debye):
    X=            -77.9425    Y=              3.3859    Z=              1.0865  Tot=             78.0235
 Quadrupole moment (field-independent basis, Debye-Ang):
   XX=             64.9695   YY=            191.8011   ZZ=             -3.4614
   XY=              4.8212   XZ=              0.9749   YZ=              0.2002

 Normal termination of Gaussian 16 at Thu Dec 22 17:20:37 2022.
