 Gaussian 16, Revision C.01,
 Gaussian 16:  ES64L-G16RevC.01  3-Jul-2019

 ----------------------
 # uhf/6-31++g** neda=2
 ----------------------

 -----------------------
 Na..OH2 (uhf/6-31++G**)
 -----------------------
 Symbolic Z-matrix:
 Charge =  0 Multiplicity = 2 in supermolecule
 Charge =  0 Multiplicity = 2 in fragment      1.
 Charge =  0 Multiplicity = 1 in fragment      2.

 SCF Done:  E(UHF) =  -237.881532864     A.U. after   14 cycles

 Summary of Natural Population Analysis:

                                     Natural Population
             Natural    ---------------------------------------------
  Atom No    Charge        Core      Valence    Rydberg      Total
 --------------------------------------------------------------------
   Na  1    0.49363      4.99998     0.00619    0.00020     5.00637
    O  2   -0.51346      1.00000     3.50533    0.00813     4.51346
    H  3    0.25991      0.00000     0.00006    0.24002     0.24009
    H  4    0.25991      0.00000     0.00006    0.24002     0.24009
 ====================================================================
 * Total *  0.50000      5.99998     3.51165    0.48837    10.00000

 SCF Done:  E(UHF) =  -237.865582804     A.U. after    2 cycles
 SCF Done:  E(UHF) =  -161.841491685     A.U. after   11 cycles
 SCF Done:  E(UHF) =  -76.0324200962     A.U. after   11 cycles

                         Standard orientation:
 ---------------------------------------------------------------------
 Center     Atomic      Atomic             Coordinates (Angstroms)
 Number     Number       Type             X           Y           Z
 ---------------------------------------------------------------------
      1         11           0        0.000000    0.000000   -1.179205
      2          8           0       -0.000000    0.000000    1.185281
      3          1           0       -0.000000    0.762733    1.744507
      4          1           0        0.000000   -0.762733    1.744507
 ---------------------------------------------------------------------

 The electronic state is 2-A1.
 Alpha  occ. eigenvalues --  -20.57988  -1.36031  -0.73200  -0.58050  -0.50941
 Alpha  occ. eigenvalues --    0.01088   0.01787   0.01835   0.01944   0.06474
 Alpha  occ. eigenvalues --    0.07536
 Alpha virt. eigenvalues --    0.08137   0.08958   0.09077   0.09826   0.22588
 Alpha virt. eigenvalues --    0.27800   0.29557   0.29816   0.30994   0.34025
 Alpha virt. eigenvalues --    0.35505   0.39556   0.40420   0.45458   0.63705

  Beta  occ. eigenvalues --  -20.57988  -1.36031  -0.73200  -0.58050  -0.50941
  Beta  occ. eigenvalues --    0.01088   0.01787   0.01835   0.01944   0.06474
  Beta virt. eigenvalues --    0.07536   0.08137   0.08958   0.09077   0.09826
  Beta virt. eigenvalues --    0.22588   0.27800   0.29557   0.29816   0.30994
  Beta virt. eigenvalues --    0.34025   0.35505   0.39556   0.40420   0.45458

 Mulliken charges and spin densities:
               1          2
     1  Na  11.069962  -0.000000
     2  O   -0.803539   0.000000
     3  H    0.366788  -0.000000
     4  H    0.366788  -0.000000
 Sum of Mulliken charges =  11.00000  -0.00000

 Dipole moment (field-independent basis, Debye):
    X=              0.0000    Y=              0.0000    Z=             60.1946  Tot=             60.1946
 Quadrupole moment (field-independent basis, Debye-Ang):
   XX=             -7.6375   YY=             -4.1177   ZZ=             72.6100
   XY=             -0.0000   XZ=              0.0000   YZ=             -0.0000

 Normal termination of Gaussian 16 at Thu Dec 22 17:06:26 2022.
